 Entering Gaussian System, Link 0=/opt/g09/g09/g09
 Input=test.com
 Output=test.log
 Initial command:
 /opt/g09/g09/l1.exe /scr/tobias/G09_27906.dir/Gau-27913.inp -scrdir=/scr/tobias/G09_27906.dir/
 Default is to use a total of   8 processors:
                                8 via shared-memory
                                1 via Linda
 Entering Link 1 = /opt/g09/g09/l1.exe PID=     27914.
  
 Copyright (c) 1988,1990,1992,1993,1995,1998,2003,2009,2010,
            Gaussian, Inc.  All Rights Reserved.
  
 This is part of the Gaussian(R) 09 program.  It is based on
 the Gaussian(R) 03 system (copyright 2003, Gaussian, Inc.),
 the Gaussian(R) 98 system (copyright 1998, Gaussian, Inc.),
 the Gaussian(R) 94 system (copyright 1995, Gaussian, Inc.),
 the Gaussian 92(TM) system (copyright 1992, Gaussian, Inc.),
 the Gaussian 90(TM) system (copyright 1990, Gaussian, Inc.),
 the Gaussian 88(TM) system (copyright 1988, Gaussian, Inc.),
 the Gaussian 86(TM) system (copyright 1986, Carnegie Mellon
 University), and the Gaussian 82(TM) system (copyright 1983,
 Carnegie Mellon University). Gaussian is a federally registered
 trademark of Gaussian, Inc.
  
 This software contains proprietary and confidential information,
 including trade secrets, belonging to Gaussian, Inc.
  
 This software is provided under written license and may be
 used, copied, transmitted, or stored only in accord with that
 written license.
  
 The following legend is applicable only to US Government
 contracts under FAR:
  
                    RESTRICTED RIGHTS LEGEND
  
 Use, reproduction and disclosure by the US Government is
 subject to restrictions as set forth in subparagraphs (a)
 and (c) of the Commercial Computer Software - Restricted
 Rights clause in FAR 52.227-19.
  
 Gaussian, Inc.
 340 Quinnipiac St., Bldg. 40, Wallingford CT 06492
  
  
 ---------------------------------------------------------------
 Warning -- This program may not be used in any manner that
 competes with the business of Gaussian, Inc. or will provide
 assistance to any competitor of Gaussian, Inc.  The licensee
 of this program is prohibited from giving any competitor of
 Gaussian, Inc. access to this program.  By using this program,
 the user acknowledges that Gaussian, Inc. is engaged in the
 business of creating and licensing software in the field of
 computational chemistry and represents and warrants to the
 licensee that it is not a competitor of Gaussian, Inc. and that
 it will not use this program in any manner prohibited above.
 ---------------------------------------------------------------
  

 Cite this work as:
 Gaussian 09, Revision B.01,
 M. J. Frisch, G. W. Trucks, H. B. Schlegel, G. E. Scuseria, 
 M. A. Robb, J. R. Cheeseman, G. Scalmani, V. Barone, B. Mennucci, 
 G. A. Petersson, H. Nakatsuji, M. Caricato, X. Li, H. P. Hratchian, 
 A. F. Izmaylov, J. Bloino, G. Zheng, J. L. Sonnenberg, M. Hada, 
 M. Ehara, K. Toyota, R. Fukuda, J. Hasegawa, M. Ishida, T. Nakajima, 
 Y. Honda, O. Kitao, H. Nakai, T. Vreven, J. A. Montgomery, Jr., 
 J. E. Peralta, F. Ogliaro, M. Bearpark, J. J. Heyd, E. Brothers, 
 K. N. Kudin, V. N. Staroverov, T. Keith, R. Kobayashi, J. Normand, 
 K. Raghavachari, A. Rendell, J. C. Burant, S. S. Iyengar, J. Tomasi, 
 M. Cossi, N. Rega, J. M. Millam, M. Klene, J. E. Knox, J. B. Cross, 
 V. Bakken, C. Adamo, J. Jaramillo, R. Gomperts, R. E. Stratmann, 
 O. Yazyev, A. J. Austin, R. Cammi, C. Pomelli, J. W. Ochterski, 
 R. L. Martin, K. Morokuma, V. G. Zakrzewski, G. A. Voth, 
 P. Salvador, J. J. Dannenberg, S. Dapprich, A. D. Daniels, 
 O. Farkas, J. B. Foresman, J. V. Ortiz, J. Cioslowski, 
 and D. J. Fox, Gaussian, Inc., Wallingford CT, 2010.
 
 ******************************************
 Gaussian 09:  EM64L-G09RevB.01 12-Aug-2010
                16-May-2017 
 ******************************************
 Default route:  CacheSize=98304
 ---------------------------------
 #hf/6-31g(d) opt freq iop(7/33=1)
 ---------------------------------
 1/4=98304,18=20,19=15,38=1/1,3;
 2/4=98304,9=110,12=2,17=6,18=5,40=1/2;
 3/4=98304,5=1,6=6,7=1,11=9,16=1,25=1,30=1,71=1/1,2,3;
 4/4=98304/1;
 5/4=98304,5=2,38=5/2;
 6/4=98304,7=2,8=2,9=2,10=2,28=1/1;
 7/4=98304,33=1/1,2,3,16;
 1/4=98304,18=20,19=15/3(2);
 2/4=98304,9=110/2;
 99/4=98304/99;
 2/4=98304,9=110/2;
 3/4=98304,5=1,6=6,7=1,11=9,16=1,25=1,30=1,71=1/1,2,3;
 4/4=98304,5=5,16=3/1;
 5/4=98304,5=2,38=5/2;
 7/4=98304,33=1/1,2,3,16;
 1/4=98304,18=20,19=15/3(-5);
 2/4=98304,9=110/2;
 6/4=98304,7=2,8=2,9=2,10=2,19=2,28=1/1;
 99/4=98304,9=1/99;
 ------------------------
 water hf/6-31g* opt freq
 ------------------------
 Symbolic Z-matrix:
 Charge =  0 Multiplicity = 1
 O                     0.        0.       -0.11084 
 H                     0.        0.78388   0.44332 
 H                     0.       -0.78388   0.44332 
 

 GradGradGradGradGradGradGradGradGradGradGradGradGradGradGradGradGradGrad
 Berny optimization.
 Initialization pass.
                           ----------------------------
                           !    Initial Parameters    !
                           ! (Angstroms and Degrees)  !
 --------------------------                            --------------------------
 ! Name  Definition              Value          Derivative Info.                !
 --------------------------------------------------------------------------------
 ! R1    R(1,2)                  0.96           estimate D2E/DX2                !
 ! R2    R(1,3)                  0.96           estimate D2E/DX2                !
 ! A1    A(2,1,3)              109.4834         estimate D2E/DX2                !
 --------------------------------------------------------------------------------
 Trust Radius=3.00D-01 FncErr=1.00D-07 GrdErr=1.00D-07
 Number of steps in this run=     20 maximum allowed number of steps=    100.
 GradGradGradGradGradGradGradGradGradGradGradGradGradGradGradGradGradGrad

                          Input orientation:                          
 ---------------------------------------------------------------------
 Center     Atomic      Atomic             Coordinates (Angstroms)
 Number     Number       Type             X           Y           Z
 ---------------------------------------------------------------------
      1          8           0        0.000000    0.000000   -0.110843
      2          1           0        0.000000    0.783883    0.443321
      3          1           0        0.000000   -0.783883    0.443321
 ---------------------------------------------------------------------
                    Distance matrix (angstroms):
                    1          2          3
     1  O    0.000000
     2  H    0.959985   0.000000
     3  H    0.959985   1.567766   0.000000
 Stoichiometry    H2O
 Framework group  C2V[C2(O),SGV(H2)]
 Deg. of freedom     2
 Full point group                 C2V     NOp   4
 Largest Abelian subgroup         C2V     NOp   4
 Largest concise Abelian subgroup C2      NOp   2
                         Standard orientation:                         
 ---------------------------------------------------------------------
 Center     Atomic      Atomic             Coordinates (Angstroms)
 Number     Number       Type             X           Y           Z
 ---------------------------------------------------------------------
      1          8           0        0.000000    0.000000    0.110833
      2          1           0        0.000000    0.783883   -0.443331
      3          1           0        0.000000   -0.783883   -0.443331
 ---------------------------------------------------------------------
 Rotational constants (GHZ):    919.3282189    408.0367787    282.6048040
 Standard basis: 6-31G(d) (6D, 7F)
 There are    10 symmetry adapted basis functions of A1  symmetry.
 There are     1 symmetry adapted basis functions of A2  symmetry.
 There are     3 symmetry adapted basis functions of B1  symmetry.
 There are     5 symmetry adapted basis functions of B2  symmetry.
 Integral buffers will be    131072 words long.
 Raffenetti 1 integral format.
 Two-electron integral symmetry is turned on.
    19 basis functions,    36 primitive gaussians,    19 cartesian basis functions
     5 alpha electrons        5 beta electrons
       nuclear repulsion energy         9.1572954396 Hartrees.
 NAtoms=    3 NActive=    3 NUniq=    2 SFac= 2.25D+00 NAtFMM=   50 NAOKFM=F Big=F
 One-electron integrals computed using PRISM.
 NBasis=    19 RedAO= T  NBF=    10     1     3     5
 NBsUse=    19 1.00D-06 NBFU=    10     1     3     5
 Harris functional with IExCor=  205 diagonalized for initial guess.
 ExpMin= 1.61D-01 ExpMax= 5.48D+03 ExpMxC= 8.25D+02 IAcc=1 IRadAn=         1 AccDes= 0.00D+00
 HarFok:  IExCor=  205 AccDes= 0.00D+00 IRadAn=         1 IDoV= 1
 ScaDFX=  1.000000  1.000000  1.000000  1.000000
 FoFCou: FMM=F IPFlag=           0 FMFlag=      100000 FMFlg1=           0
         NFxFlg=           0 DoJE=T BraDBF=F KetDBF=T FulRan=T
         Omega=  0.000000  0.000000  1.000000  0.000000  0.000000 ICntrl=     500 IOpCl=  0
         NMat0=    1 NMatS0=    1 NMatT0=    0 NMatD0=    1 NMtDS0=    0 NMtDT0=    0
         I1Cent=           4 NGrid=           0.
 Petite list used in FoFCou.
 Initial guess orbital symmetries:
       Occupied  (A1) (A1) (B2) (A1) (B1)
       Virtual   (A1) (B2) (B2) (A1) (B1) (A1) (B2) (A1) (A2) (A1)
                 (B1) (A1) (B2) (A1)
 The electronic state of the initial guess is 1-A1.
 Requested convergence on RMS density matrix=1.00D-08 within 128 cycles.
 Requested convergence on MAX density matrix=1.00D-06.
 Requested convergence on             energy=1.00D-06.
 No special actions if energy rises.
 Keep R1 ints in memory in canonical form, NReq=857998.
 SCF Done:  E(RHF) =  -76.0098666193     A.U. after   10 cycles
             Convg  =    0.4323D-08             -V/T =  2.0028

 **********************************************************************

            Population analysis using the SCF density.

 **********************************************************************

 Orbital symmetries:
       Occupied  (A1) (A1) (B2) (A1) (B1)
       Virtual   (A1) (B2) (B2) (A1) (A1) (B1) (B2) (A1) (A2) (A1)
                 (B1) (A1) (B2) (A1)
 The electronic state is 1-A1.
 Alpha  occ. eigenvalues --  -20.55794  -1.33613  -0.71421  -0.56027  -0.49559
 Alpha virt. eigenvalues --    0.21060   0.30390   1.04589   1.11661   1.15957
 Alpha virt. eigenvalues --    1.16929   1.38463   1.41672   2.03064   2.03556
 Alpha virt. eigenvalues --    2.07412   2.62758   2.94208   3.97816
          Condensed to atoms (all electrons):
              1          2          3
     1  O    8.346497   0.264840   0.264840
     2  H    0.264840   0.313241  -0.016170
     3  H    0.264840  -0.016170   0.313241
 Mulliken atomic charges:
              1
     1  O   -0.876177
     2  H    0.438089
     3  H    0.438089
 Sum of Mulliken atomic charges =   0.00000
 Mulliken charges with hydrogens summed into heavy atoms:
              1
     1  O    0.000000
 Sum of Mulliken charges with hydrogens summed into heavy atoms =   0.00000
 Electronic spatial extent (au):  <R**2>=             18.9609
 Charge=              0.0000 electrons
 Dipole moment (field-independent basis, Debye):
    X=              0.0000    Y=              0.0000    Z=             -2.1384  Tot=              2.1384
 Quadrupole moment (field-independent basis, Debye-Ang):
   XX=             -7.2321   YY=             -3.8951   ZZ=             -6.1129
   XY=              0.0000   XZ=              0.0000   YZ=              0.0000
 Traceless Quadrupole moment (field-independent basis, Debye-Ang):
   XX=             -1.4854   YY=              1.8516   ZZ=             -0.3662
   XY=              0.0000   XZ=              0.0000   YZ=              0.0000
 Octapole moment (field-independent basis, Debye-Ang**2):
  XXX=              0.0000  YYY=              0.0000  ZZZ=             -1.3409  XYY=              0.0000
  XXY=              0.0000  XXZ=             -0.3667  XZZ=              0.0000  YZZ=              0.0000
  YYZ=             -1.4023  XYZ=              0.0000
 Hexadecapole moment (field-independent basis, Debye-Ang**3):
 XXXX=             -5.2144 YYYY=             -5.2959 ZZZZ=             -6.0102 XXXY=              0.0000
 XXXZ=              0.0000 YYYX=              0.0000 YYYZ=              0.0000 ZZZX=              0.0000
 ZZZY=              0.0000 XXYY=             -2.0596 XXZZ=             -1.9113 YYZZ=             -1.6067
 XXYZ=              0.0000 YYXZ=              0.0000 ZZXY=              0.0000
 N-N= 9.157295439608D+00 E-N=-1.988074085543D+02  KE= 7.580138606176D+01
 Symmetry A1   KE= 6.775225404948D+01
 Symmetry A2   KE= 5.758233198102D-35
 Symmetry B1   KE= 4.548342984538D+00
 Symmetry B2   KE= 3.500789027742D+00
 DipInt: DoE/N= T T RetVal/Mat= T F Init=T NMatP=  1 IDeriv=0 Min/MaxMlt=  1  1
 Entering OneElI...
 Multipole integrals L=1 to 1 MinM= 0 MaxM= 0.
 Requested accuracy = 0.1000D-12
 PrsmSu:  NPrtUS=   1 ThrOK=F IAlg=1 NPAlg=1 LenDen=           0.
 Prism:   IPart=     0 DynPar=F LinDyn=F Incr=           1.
 PRISM was handed   134210454 working-precision words and    36 shell-pairs
 IPart=  0 NShTot=          36 NBatch=          21 AvBLen=         1.7
 PrSmSu:  NxtVal=              2.
 Entering OneElI...
 Calculate overlap and kinetic energy integrals
    NBasis =  19  MinDer = 1  MaxDer = 1
 Requested accuracy = 0.1000D-12
 PrsmSu:  NPrtUS=   8 ThrOK=T IAlg=1 NPAlg=1 LenDen=           0.
 Prism:   IPart=     0 DynPar=F LinDyn=F Incr=           1.
 PRISM was handed    16774142 working-precision words and    36 shell-pairs
 PRISM was handed    16774142 working-precision words and    36 shell-pairs
 PRISM was handed    16774142 working-precision words and    36 shell-pairs
 PRISM was handed    16774142 working-precision words and    36 shell-pairs
 PRISM was handed    16774142 working-precision words and    36 shell-pairs
 PRISM was handed    16774142 working-precision words and    36 shell-pairs
 PRISM was handed    16774142 working-precision words and    36 shell-pairs
 PRISM was handed    16774142 working-precision words and    36 shell-pairs
 IPart=  7 NShTot=           0 NBatch=           0 AvBLen=         0.0
 IPart=  2 NShTot=           3 NBatch=           3 AvBLen=         1.0
 IPart=  0 NShTot=          21 NBatch=          21 AvBLen=         1.0
 IPart=  5 NShTot=           0 NBatch=           0 AvBLen=         0.0
 IPart=  1 NShTot=          10 NBatch=          10 AvBLen=         1.0
 IPart=  4 NShTot=           0 NBatch=           0 AvBLen=         0.0
 IPart=  6 NShTot=           0 NBatch=           0 AvBLen=         0.0
 IPart=  3 NShTot=           2 NBatch=           2 AvBLen=         1.0
 PrSmSu:  NxtVal=              9.
 Entering OneElI...
 Calculate potential energy integrals
    NBasis =  19  MinDer = 1  MaxDer = 1
 Requested accuracy = 0.1000D-12
 PrsmSu:  NPrtUS=   8 ThrOK=T IAlg=1 NPAlg=1 LenDen=           0.
 Prism:   IPart=     0 DynPar=F LinDyn=F Incr=           1.
 PRISM was handed    16774227 working-precision words and    36 shell-pairs
 PRISM was handed    16774227 working-precision words and    36 shell-pairs
 PRISM was handed    16774227 working-precision words and    36 shell-pairs
 PRISM was handed    16774227 working-precision words and    36 shell-pairs
 PRISM was handed    16774227 working-precision words and    36 shell-pairs
 PRISM was handed    16774227 working-precision words and    36 shell-pairs
 PRISM was handed    16774227 working-precision words and    36 shell-pairs
 PRISM was handed    16774227 working-precision words and    36 shell-pairs
 IPart=  0 NShTot=          63 NBatch=          21 AvBLen=         3.0
 IPart=  6 NShTot=           0 NBatch=           0 AvBLen=         0.0
 IPart=  7 NShTot=           0 NBatch=           0 AvBLen=         0.0
 IPart=  5 NShTot=           0 NBatch=           0 AvBLen=         0.0
 IPart=  4 NShTot=           0 NBatch=           0 AvBLen=         0.0
 IPart=  1 NShTot=          30 NBatch=          10 AvBLen=         3.0
 IPart=  3 NShTot=           6 NBatch=           2 AvBLen=         3.0
 IPart=  2 NShTot=           9 NBatch=           3 AvBLen=         3.0
 PrSmSu:  NxtVal=              9.
 l701 out
 I=    0 X=   0.000000000000D+00 Y=   0.000000000000D+00 Z=  -8.413054779427D-01
 I=    1 X=   0.000000000000D+00 Y=   0.000000000000D+00 Z=   2.517571111373D+00
 I=    2 X=   0.000000000000D+00 Y=   2.056646248259D+00 Z=  -1.258785555686D+00
 I=    3 X=   0.000000000000D+00 Y=  -2.056646248259D+00 Z=  -1.258785555686D+00
 ICntrl=      2127.
 Calling FoFJK, ICntrl=      2127 FMM=F ISym2X=1 I1Cent= 0 IOpClX= 0 NMat=1 NMatS=1 NMatT=0.
 FoFJK:  IHMeth= 1 ICntrl=  2127 DoSepK=F KAlg= 1 I1Cent= 0 FoldK=F
 FoFCou: FMM=F IPFlag=           0 FMFlag=      100000 FMFlg1=         800
         NFxFlg=           0 DoJE=F BraDBF=F KetDBF=F FulRan=T
         Omega=  0.000000  0.000000  1.000000  0.000000  0.000000 ICntrl=    2127 IOpCl=  0
         NMat0=    1 NMatS0=    1 NMatT0=    0 NMatD0=    1 NMtDS0=    0 NMtDT0=    0
         I1Cent=           0 NGrid=           0.
 Petite list used in FoFCou.
 FoFCou:  KetSym=F NOpSet=  4 NOpAb=4 NOp=  4.
 FoFCou:  CnvScl= 1.00D+00 Thresh= 1.00D-10
 PrismS was handed   134210417 working-precision words and    36 shell-pairs
 FoFCou: LinMIO=F DoNuc=F BraDBF=F KetDBF=F HaveP=T PDBF=F HaveZ=T HaveW=F
         NIJTC =       6 NIJTAt=       0 NIJTCD=       0 NIJTT =       6
         IJTBeg=       1 IJTEnd=       6 KLTBeg=       1 KLTEnd=       6
         IPTBeg=       1 IPTEnd=       6 IPTBCv=       1 IPTECv=       6
         IZTBeg=       1 IZTEnd=       6 IZTBCv=       1 IZTECv=       6
         IWTBeg=       7 IWTEnd=       6 IWTBCv=       7 IWTECv=       6
         INTBeg=       1 INTEnd=       0 IFTBCv=       1 IFTECv=       6
 NCel replicated for PrismC:     1
 CoulSu:  IncDef=  1024 NBBP=            666 NTPThr=   100 NPartT=    8 Incr=           1 LDynOK=F.
 CoulSu:  NPrtUS=   8 ThrOK=T IAlg=1 NPAlg=1 LenDen=           0.
 Enter PrismC: JobTyp=21 DoJE=F Cont=F.
 PrismC:  IPart=     0 DynPar=F LinDyn=F Incr=           1 UseFst=F UseS4=T.
 PrismC was handed    16774260 working-precision words and    36 shell-pairs
 Enter PrismC: JobTyp=21 DoJE=F Cont=F.
 PrismC was handed    16774260 working-precision words and    36 shell-pairs
 Enter PrismC: JobTyp=21 DoJE=F Cont=F.
 Enter PrismC: JobTyp=21 DoJE=F Cont=F.
 PrismC was handed    16774260 working-precision words and    36 shell-pairs
 PrismC was handed    16774260 working-precision words and    36 shell-pairs
 Enter PrismC: JobTyp=21 DoJE=F Cont=F.
 PrismC was handed    16774260 working-precision words and    36 shell-pairs
 Enter PrismC: JobTyp=21 DoJE=F Cont=F.
 Enter PrismC: JobTyp=21 DoJE=F Cont=F.
 PrismC was handed    16774260 working-precision words and    36 shell-pairs
 PrismC was handed    16774260 working-precision words and    36 shell-pairs
 Enter PrismC: JobTyp=21 DoJE=F Cont=F.
 PrismC was handed    16774260 working-precision words and    36 shell-pairs
 IPart=  2 NShTot=          47 NShNF=          47 NShFF=           0 NBatch=          47 AvBLen=         1.0
 IPart=  4 NShTot=           6 NShNF=           6 NShFF=           0 NBatch=           6 AvBLen=         1.0
 IPart=  5 NShTot=           6 NShNF=           6 NShFF=           0 NBatch=           6 AvBLen=         1.0
 IPart=  6 NShTot=           3 NShNF=           3 NShFF=           0 NBatch=           3 AvBLen=         1.0
 IPart=  7 NShTot=           3 NShNF=           3 NShFF=           0 NBatch=           3 AvBLen=         1.0
 IPart=  3 NShTot=          38 NShNF=          38 NShFF=           0 NBatch=          38 AvBLen=         1.0
 IPart=  1 NShTot=         133 NShNF=         133 NShFF=           0 NBatch=         133 AvBLen=         1.0
 IPart=  0 NShTot=         142 NShNF=         142 NShFF=           0 NBatch=         142 AvBLen=         1.0
 CoulSu:  NxtVal=              9.
 Forces at end of L703
 I=    0 X=   0.000000000000D+00 Y=   0.000000000000D+00 Z=  -8.413054779427D-01
 I=    1 X=   0.000000000000D+00 Y=   0.000000000000D+00 Z=   5.485118995236D-03
 I=    2 X=   0.000000000000D+00 Y=   1.735317408863D-02 Z=  -2.742559497619D-03
 I=    3 X=   0.000000000000D+00 Y=  -1.735317408863D-02 Z=  -2.742559497618D-03
 FrcOut:
 IF    =    67 IFX   =    76 IFXYZ =    85
 IFFX  =    94 IFFFX =    94 IFLen =     9
 IFFLen=     0 IFFFLn=     0 IEDerv=    94
 LEDerv=   485 IFroze=   583 ICStrt=  1385
 Quadrupole    =-1.10438188D+00 1.37663673D+00-2.72254850D-01
                 1.16070627D-16 6.31096300D-17-2.77555756D-17
 Forces in standard orientation:
 -------------------------------------------------------------------
 Center     Atomic                   Forces (Hartrees/Bohr)
 Number     Number              X              Y              Z
 -------------------------------------------------------------------
      1        8           0.000000000    0.000000000    0.005485119
      2        1           0.000000000    0.017353174   -0.002742559
      3        1           0.000000000   -0.017353174   -0.002742559
 -------------------------------------------------------------------
 ***** Axes restored to original set *****
 Rotating derivatives, DoTrsp=F IDiff=-1 LEDeriv=    485 LFDPrp=       0 LDFDPr=       0.
 -------------------------------------------------------------------
 Center     Atomic                   Forces (Hartrees/Bohr)
 Number     Number              X              Y              Z
 -------------------------------------------------------------------
      1        8           0.000000000    0.000000000    0.005485119
      2        1           0.000000000   -0.017353174   -0.002742559
      3        1           0.000000000    0.017353174   -0.002742559
 -------------------------------------------------------------------
 Cartesian Forces:  Max     0.017353174 RMS     0.008481320
 Final forces over variables, Energy=-7.60098666D+01:
  0.00000000D+00 0.00000000D+00 0.00000000D+00

 GradGradGradGradGradGradGradGradGradGradGradGradGradGradGradGradGradGrad
 Berny optimization.
 Internal  Forces:  Max     0.015753052 RMS     0.015225065
 Search for a local minimum.
 Step number   1 out of a maximum of   20
 All quantities printed in internal units (Hartrees-Bohrs-Radians)
 Mixed Optimization -- RFO/linear search
 Second derivative matrix not updated -- first step.
 The second derivative matrix:
                          R1        R2        A1
           R1           0.55477
           R2           0.00000   0.55477
           A1           0.00000   0.00000   0.16000
 ITU=  0
     Eigenvalues ---    0.16000   0.55477   0.55477
 RFO step:  Lambda=-2.11928798D-03 EMin= 1.60000000D-01
 Linear search not attempted -- first point.
 Iteration  1 RMS(Cart)=  0.06032808 RMS(Int)=  0.00160468
 Iteration  2 RMS(Cart)=  0.00111642 RMS(Int)=  0.00000067
 Iteration  3 RMS(Cart)=  0.00000073 RMS(Int)=  0.00000000
 ClnCor:  largest displacement from symmetrization is 4.44D-16 for atom     3.
 Variable       Old X    -DE/DX   Delta X   Delta X   Delta X     New X
                                 (Linear)    (Quad)   (Total)
    R1        1.81411  -0.01575   0.00000  -0.02829  -0.02829   1.78582
    R2        1.81411  -0.01575   0.00000  -0.02829  -0.02829   1.78582
    A1        1.91085  -0.01411   0.00000  -0.08703  -0.08703   1.82381
         Item               Value     Threshold  Converged?
 Maximum Force            0.015753     0.000450     NO 
 RMS     Force            0.015225     0.000300     NO 
 Maximum Displacement     0.069326     0.001800     NO 
 RMS     Displacement     0.060638     0.001200     NO 
 Predicted change in Energy=-1.069366D-03
 GradGradGradGradGradGradGradGradGradGradGradGradGradGradGradGradGradGrad

                          Input orientation:                          
 ---------------------------------------------------------------------
 Center     Atomic      Atomic             Coordinates (Angstroms)
 Number     Number       Type             X           Y           Z
 ---------------------------------------------------------------------
      1          8           0        0.000000    0.000000   -0.127118
      2          1           0        0.000000    0.747197    0.451458
      3          1           0        0.000000   -0.747197    0.451458
 ---------------------------------------------------------------------
                    Distance matrix (angstroms):
                    1          2          3
     1  O    0.000000
     2  H    0.945016   0.000000
     3  H    0.945016   1.494395   0.000000
 Stoichiometry    H2O
 Framework group  C2V[C2(O),SGV(H2)]
 Deg. of freedom     2
 Full point group                 C2V     NOp   4
 Largest Abelian subgroup         C2V     NOp   4
 Largest concise Abelian subgroup C2      NOp   2
                         Standard orientation:                         
 ---------------------------------------------------------------------
 Center     Atomic      Atomic             Coordinates (Angstroms)
 Number     Number       Type             X           Y           Z
 ---------------------------------------------------------------------
      1          8           0        0.000000    0.000000    0.115715
      2          1           0        0.000000    0.747197   -0.462861
      3          1           0        0.000000   -0.747197   -0.462861
 ---------------------------------------------------------------------
 Rotational constants (GHZ):    843.3854005    449.0880016    293.0460801
 Standard basis: 6-31G(d) (6D, 7F)
 There are    10 symmetry adapted basis functions of A1  symmetry.
 There are     1 symmetry adapted basis functions of A2  symmetry.
 There are     3 symmetry adapted basis functions of B1  symmetry.
 There are     5 symmetry adapted basis functions of B2  symmetry.
 Integral buffers will be    131072 words long.
 Raffenetti 1 integral format.
 Two-electron integral symmetry is turned on.
    19 basis functions,    36 primitive gaussians,    19 cartesian basis functions
     5 alpha electrons        5 beta electrons
       nuclear repulsion energy         9.3135745052 Hartrees.
 NAtoms=    3 NActive=    3 NUniq=    2 SFac= 2.25D+00 NAtFMM=   50 NAOKFM=F Big=F
 One-electron integrals computed using PRISM.
 NBasis=    19 RedAO= T  NBF=    10     1     3     5
 NBsUse=    19 1.00D-06 NBFU=    10     1     3     5
 Initial guess read from the read-write file.
 B after Tr=     0.000000    0.000000    0.000000
         Rot=    1.000000    0.000000    0.000000    0.000000 Ang=   0.00 deg.
 Initial guess orbital symmetries:
       Occupied  (A1) (A1) (B2) (A1) (B1)
       Virtual   (A1) (B2) (B2) (A1) (A1) (B1) (B2) (A1) (A2) (A1)
                 (B1) (A1) (B2) (A1)
 Harris functional with IExCor=  205 diagonalized for initial guess.
 ExpMin= 1.61D-01 ExpMax= 5.48D+03 ExpMxC= 8.25D+02 IAcc=1 IRadAn=         1 AccDes= 0.00D+00
 HarFok:  IExCor=  205 AccDes= 0.00D+00 IRadAn=         1 IDoV= 1
 ScaDFX=  1.000000  1.000000  1.000000  1.000000
 FoFCou: FMM=F IPFlag=           0 FMFlag=      100000 FMFlg1=           0
         NFxFlg=           0 DoJE=T BraDBF=F KetDBF=T FulRan=T
         Omega=  0.000000  0.000000  1.000000  0.000000  0.000000 ICntrl=     500 IOpCl=  0
         NMat0=    1 NMatS0=    1 NMatT0=    0 NMatD0=    1 NMtDS0=    0 NMtDT0=    0
         I1Cent=           4 NGrid=           0.
 Petite list used in FoFCou.
 Requested convergence on RMS density matrix=1.00D-08 within 128 cycles.
 Requested convergence on MAX density matrix=1.00D-06.
 Requested convergence on             energy=1.00D-06.
 No special actions if energy rises.
 Keep R1 ints in memory in canonical form, NReq=857998.
 SCF Done:  E(RHF) =  -76.0107010795     A.U. after    9 cycles
             Convg  =    0.2742D-08             -V/T =  2.0018
 DipInt: DoE/N= T T RetVal/Mat= T F Init=T NMatP=  1 IDeriv=0 Min/MaxMlt=  1  1
 Entering OneElI...
 Multipole integrals L=1 to 1 MinM= 0 MaxM= 0.
 Requested accuracy = 0.1000D-12
 PrsmSu:  NPrtUS=   1 ThrOK=F IAlg=1 NPAlg=1 LenDen=           0.
 Prism:   IPart=     0 DynPar=F LinDyn=F Incr=           1.
 PRISM was handed   134210454 working-precision words and    36 shell-pairs
 IPart=  0 NShTot=          36 NBatch=          21 AvBLen=         1.7
 PrSmSu:  NxtVal=              2.
 Entering OneElI...
 Calculate overlap and kinetic energy integrals
    NBasis =  19  MinDer = 1  MaxDer = 1
 Requested accuracy = 0.1000D-12
 PrsmSu:  NPrtUS=   8 ThrOK=T IAlg=1 NPAlg=1 LenDen=           0.
 Prism:   IPart=     0 DynPar=F LinDyn=F Incr=           1.
 PRISM was handed    16774142 working-precision words and    36 shell-pairs
 PRISM was handed    16774142 working-precision words and    36 shell-pairs
 PRISM was handed    16774142 working-precision words and    36 shell-pairs
 PRISM was handed    16774142 working-precision words and    36 shell-pairs
 PRISM was handed    16774142 working-precision words and    36 shell-pairs
 PRISM was handed    16774142 working-precision words and    36 shell-pairs
 PRISM was handed    16774142 working-precision words and    36 shell-pairs
 PRISM was handed    16774142 working-precision words and    36 shell-pairs
 IPart=  2 NShTot=           3 NBatch=           3 AvBLen=         1.0
 IPart=  0 NShTot=          21 NBatch=          21 AvBLen=         1.0
 IPart=  5 NShTot=           0 NBatch=           0 AvBLen=         0.0
 IPart=  1 NShTot=          10 NBatch=          10 AvBLen=         1.0
 IPart=  6 NShTot=           0 NBatch=           0 AvBLen=         0.0
 IPart=  4 NShTot=           0 NBatch=           0 AvBLen=         0.0
 IPart=  7 NShTot=           0 NBatch=           0 AvBLen=         0.0
 IPart=  3 NShTot=           2 NBatch=           2 AvBLen=         1.0
 PrSmSu:  NxtVal=              9.
 Entering OneElI...
 Calculate potential energy integrals
    NBasis =  19  MinDer = 1  MaxDer = 1
 Requested accuracy = 0.1000D-12
 PrsmSu:  NPrtUS=   8 ThrOK=T IAlg=1 NPAlg=1 LenDen=           0.
 Prism:   IPart=     0 DynPar=F LinDyn=F Incr=           1.
 PRISM was handed    16774227 working-precision words and    36 shell-pairs
 PRISM was handed    16774227 working-precision words and    36 shell-pairs
 PRISM was handed    16774227 working-precision words and    36 shell-pairs
 PRISM was handed    16774227 working-precision words and    36 shell-pairs
 PRISM was handed    16774227 working-precision words and    36 shell-pairs
 PRISM was handed    16774227 working-precision words and    36 shell-pairs
 PRISM was handed    16774227 working-precision words and    36 shell-pairs
 PRISM was handed    16774227 working-precision words and    36 shell-pairs
 IPart=  1 NShTot=          30 NBatch=          10 AvBLen=         3.0
 IPart=  4 NShTot=           0 NBatch=           0 AvBLen=         0.0
 IPart=  3 NShTot=           6 NBatch=           2 AvBLen=         3.0
 IPart=  2 NShTot=           9 NBatch=           3 AvBLen=         3.0
 IPart=  0 NShTot=          63 NBatch=          21 AvBLen=         3.0
 IPart=  6 NShTot=           0 NBatch=           0 AvBLen=         0.0
 IPart=  5 NShTot=           0 NBatch=           0 AvBLen=         0.0
 IPart=  7 NShTot=           0 NBatch=           0 AvBLen=         0.0
 PrSmSu:  NxtVal=              9.
 l701 out
 I=    0 X=   0.000000000000D+00 Y=   0.000000000000D+00 Z=  -8.712041133777D-01
 I=    1 X=   0.000000000000D+00 Y=   0.000000000000D+00 Z=   2.827421455941D+00
 I=    2 X=   0.000000000000D+00 Y=   1.952099513348D+00 Z=  -1.413710727971D+00
 I=    3 X=   0.000000000000D+00 Y=  -1.952099513348D+00 Z=  -1.413710727971D+00
 ICntrl=      2127.
 Calling FoFJK, ICntrl=      2127 FMM=F ISym2X=1 I1Cent= 0 IOpClX= 0 NMat=1 NMatS=1 NMatT=0.
 FoFJK:  IHMeth= 1 ICntrl=  2127 DoSepK=F KAlg= 1 I1Cent= 0 FoldK=F
 FoFCou: FMM=F IPFlag=           0 FMFlag=      100000 FMFlg1=         800
         NFxFlg=           0 DoJE=F BraDBF=F KetDBF=F FulRan=T
         Omega=  0.000000  0.000000  1.000000  0.000000  0.000000 ICntrl=    2127 IOpCl=  0
         NMat0=    1 NMatS0=    1 NMatT0=    0 NMatD0=    1 NMtDS0=    0 NMtDT0=    0
         I1Cent=           0 NGrid=           0.
 Petite list used in FoFCou.
 FoFCou:  KetSym=F NOpSet=  4 NOpAb=4 NOp=  4.
 FoFCou:  CnvScl= 1.00D+00 Thresh= 1.00D-10
 PrismS was handed   134210417 working-precision words and    36 shell-pairs
 FoFCou: LinMIO=F DoNuc=F BraDBF=F KetDBF=F HaveP=T PDBF=F HaveZ=T HaveW=F
         NIJTC =       6 NIJTAt=       0 NIJTCD=       0 NIJTT =       6
         IJTBeg=       1 IJTEnd=       6 KLTBeg=       1 KLTEnd=       6
         IPTBeg=       1 IPTEnd=       6 IPTBCv=       1 IPTECv=       6
         IZTBeg=       1 IZTEnd=       6 IZTBCv=       1 IZTECv=       6
         IWTBeg=       7 IWTEnd=       6 IWTBCv=       7 IWTECv=       6
         INTBeg=       1 INTEnd=       0 IFTBCv=       1 IFTECv=       6
 NCel replicated for PrismC:     1
 CoulSu:  IncDef=  1024 NBBP=            666 NTPThr=   100 NPartT=    8 Incr=           1 LDynOK=F.
 CoulSu:  NPrtUS=   8 ThrOK=T IAlg=1 NPAlg=1 LenDen=           0.
 Enter PrismC: JobTyp=21 DoJE=F Cont=F.
 PrismC:  IPart=     0 DynPar=F LinDyn=F Incr=           1 UseFst=F UseS4=T.
 PrismC was handed    16774260 working-precision words and    36 shell-pairs
 Enter PrismC: JobTyp=21 DoJE=F Cont=F.
 PrismC was handed    16774260 working-precision words and    36 shell-pairs
 Enter PrismC: JobTyp=21 DoJE=F Cont=F.
 Enter PrismC: JobTyp=21 DoJE=F Cont=F.
 PrismC was handed    16774260 working-precision words and    36 shell-pairs
 PrismC was handed    16774260 working-precision words and    36 shell-pairs
 Enter PrismC: JobTyp=21 DoJE=F Cont=F.
 PrismC was handed    16774260 working-precision words and    36 shell-pairs
 Enter PrismC: JobTyp=21 DoJE=F Cont=F.
 PrismC was handed    16774260 working-precision words and    36 shell-pairs
 Enter PrismC: JobTyp=21 DoJE=F Cont=F.
 Enter PrismC: JobTyp=21 DoJE=F Cont=F.
 PrismC was handed    16774260 working-precision words and    36 shell-pairs
 PrismC was handed    16774260 working-precision words and    36 shell-pairs
 IPart=  2 NShTot=          47 NShNF=          47 NShFF=           0 NBatch=          47 AvBLen=         1.0
 IPart=  5 NShTot=           6 NShNF=           6 NShFF=           0 NBatch=           6 AvBLen=         1.0
 IPart=  7 NShTot=           3 NShNF=           3 NShFF=           0 NBatch=           3 AvBLen=         1.0
 IPart=  3 NShTot=          38 NShNF=          38 NShFF=           0 NBatch=          38 AvBLen=         1.0
 IPart=  0 NShTot=         142 NShNF=         142 NShFF=           0 NBatch=         142 AvBLen=         1.0
 IPart=  4 NShTot=           6 NShNF=           6 NShFF=           0 NBatch=           6 AvBLen=         1.0
 IPart=  6 NShTot=           3 NShNF=           3 NShFF=           0 NBatch=           3 AvBLen=         1.0
 IPart=  1 NShTot=         133 NShNF=         133 NShFF=           0 NBatch=         133 AvBLen=         1.0
 CoulSu:  NxtVal=              9.
 Forces at end of L703
 I=    0 X=   0.000000000000D+00 Y=   0.000000000000D+00 Z=  -8.712041133777D-01
 I=    1 X=   0.000000000000D+00 Y=   0.000000000000D+00 Z=  -6.564067610513D-04
 I=    2 X=   0.000000000000D+00 Y=  -3.747073040018D-03 Z=   3.282033805263D-04
 I=    3 X=   0.000000000000D+00 Y=   3.747073040020D-03 Z=   3.282033805274D-04
 FrcOut:
 IF    =    67 IFX   =    76 IFXYZ =    85
 IFFX  =    94 IFFFX =    94 IFLen =     9
 IFFLen=     0 IFFFLn=     0 IEDerv=    94
 LEDerv=   485 IFroze=   583 ICStrt=  1385
 Forces in standard orientation:
 -------------------------------------------------------------------
 Center     Atomic                   Forces (Hartrees/Bohr)
 Number     Number              X              Y              Z
 -------------------------------------------------------------------
      1        8           0.000000000    0.000000000   -0.000656407
      2        1           0.000000000   -0.003747073    0.000328203
      3        1           0.000000000    0.003747073    0.000328203
 -------------------------------------------------------------------
 ***** Axes restored to original set *****
 Rotating derivatives, DoTrsp=F IDiff=-1 LEDeriv=    485 LFDPrp=       0 LDFDPr=       0.
 -------------------------------------------------------------------
 Center     Atomic                   Forces (Hartrees/Bohr)
 Number     Number              X              Y              Z
 -------------------------------------------------------------------
      1        8           0.000000000    0.000000000   -0.000656407
      2        1           0.000000000    0.003747073    0.000328203
      3        1           0.000000000   -0.003747073    0.000328203
 -------------------------------------------------------------------
 Cartesian Forces:  Max     0.003747073 RMS     0.001786599
 Final forces over variables, Energy=-7.60107011D+01:
 -1.57530517D-02-1.57530517D-02-1.41099439D-02

 GradGradGradGradGradGradGradGradGradGradGradGradGradGradGradGradGradGrad
 Berny optimization.
 Using GEDIIS/GDIIS optimizer.
 Internal  Forces:  Max     0.003633443 RMS     0.003327622
 Search for a local minimum.
 Step number   2 out of a maximum of   20
 All quantities printed in internal units (Hartrees-Bohrs-Radians)
 Mixed Optimization -- RFO/linear search
 Update second derivatives using D2CorX and points    1    2
 DE= -8.34D-04 DEPred=-1.07D-03 R= 7.80D-01
 SS=  1.41D+00  RLast= 9.58D-02 DXNew= 5.0454D-01 2.8736D-01
 Trust test= 7.80D-01 RLast= 9.58D-02 DXMaxT set to 3.00D-01
 The second derivative matrix:
                          R1        R2        A1
           R1           0.57435
           R2           0.01959   0.57435
           A1           0.02431   0.02431   0.18807
 ITU=  1  0
 Use linear search instead of GDIIS.
     Eigenvalues ---    0.18518   0.55477   0.59683
 RFO step:  Lambda=-7.04618750D-07 EMin= 1.85175511D-01
 Quartic linear search produced a step of -0.18172.
 Iteration  1 RMS(Cart)=  0.01144652 RMS(Int)=  0.00005905
 Iteration  2 RMS(Cart)=  0.00004059 RMS(Int)=  0.00000000
 Iteration  3 RMS(Cart)=  0.00000000 RMS(Int)=  0.00000000
 ClnCor:  largest displacement from symmetrization is 9.49D-16 for atom     3.
 Variable       Old X    -DE/DX   Delta X   Delta X   Delta X     New X
                                 (Linear)    (Quad)   (Total)
    R1        1.78582   0.00316   0.00514  -0.00062   0.00452   1.79034
    R2        1.78582   0.00316   0.00514  -0.00062   0.00452   1.79034
    A1        1.82381   0.00363   0.01582   0.00132   0.01714   1.84095
         Item               Value     Threshold  Converged?
 Maximum Force            0.003633     0.000450     NO 
 RMS     Force            0.003328     0.000300     NO 
 Maximum Displacement     0.012914     0.001800     NO 
 RMS     Displacement     0.011438     0.001200     NO 
 Predicted change in Energy=-4.735041D-05
 GradGradGradGradGradGradGradGradGradGradGradGradGradGradGradGradGradGrad

                          Input orientation:                          
 ---------------------------------------------------------------------
 Center     Atomic      Atomic             Coordinates (Angstroms)
 Number     Number       Type             X           Y           Z
 ---------------------------------------------------------------------
      1          8           0        0.000000    0.000000   -0.123801
      2          1           0        0.000000    0.754031    0.449800
      3          1           0        0.000000   -0.754031    0.449800
 ---------------------------------------------------------------------
                    Distance matrix (angstroms):
                    1          2          3
     1  O    0.000000
     2  H    0.947408   0.000000
     3  H    0.947408   1.508063   0.000000
 Stoichiometry    H2O
 Framework group  C2V[C2(O),SGV(H2)]
 Deg. of freedom     2
 Full point group                 C2V     NOp   4
 Largest Abelian subgroup         C2V     NOp   4
 Largest concise Abelian subgroup C2      NOp   2
                         Standard orientation:                         
 ---------------------------------------------------------------------
 Center     Atomic      Atomic             Coordinates (Angstroms)
 Number     Number       Type             X           Y           Z
 ---------------------------------------------------------------------
      1          8           0        0.000000    0.000000    0.114720
      2          1           0        0.000000    0.754031   -0.458881
      3          1           0        0.000000   -0.754031   -0.458881
 ---------------------------------------------------------------------
 Rotational constants (GHZ):    858.0786916    440.9844941    291.2863684
 Standard basis: 6-31G(d) (6D, 7F)
 There are    10 symmetry adapted basis functions of A1  symmetry.
 There are     1 symmetry adapted basis functions of A2  symmetry.
 There are     3 symmetry adapted basis functions of B1  symmetry.
 There are     5 symmetry adapted basis functions of B2  symmetry.
 Integral buffers will be    131072 words long.
 Raffenetti 1 integral format.
 Two-electron integral symmetry is turned on.
    19 basis functions,    36 primitive gaussians,    19 cartesian basis functions
     5 alpha electrons        5 beta electrons
       nuclear repulsion energy         9.2877414716 Hartrees.
 NAtoms=    3 NActive=    3 NUniq=    2 SFac= 2.25D+00 NAtFMM=   50 NAOKFM=F Big=F
 One-electron integrals computed using PRISM.
 NBasis=    19 RedAO= T  NBF=    10     1     3     5
 NBsUse=    19 1.00D-06 NBFU=    10     1     3     5
 Initial guess read from the read-write file.
 B after Tr=     0.000000    0.000000    0.000000
         Rot=    1.000000    0.000000    0.000000    0.000000 Ang=   0.00 deg.
 Initial guess orbital symmetries:
       Occupied  (A1) (A1) (B2) (A1) (B1)
       Virtual   (A1) (B2) (B2) (A1) (B1) (A1) (B2) (A1) (A1) (A2)
                 (B1) (A1) (B2) (A1)
 Requested convergence on RMS density matrix=1.00D-08 within 128 cycles.
 Requested convergence on MAX density matrix=1.00D-06.
 Requested convergence on             energy=1.00D-06.
 No special actions if energy rises.
 Keep R1 ints in memory in canonical form, NReq=857998.
 SCF Done:  E(RHF) =  -76.0107464889     A.U. after    8 cycles
             Convg  =    0.2689D-08             -V/T =  2.0020
 DipInt: DoE/N= T T RetVal/Mat= T F Init=T NMatP=  1 IDeriv=0 Min/MaxMlt=  1  1
 Entering OneElI...
 Multipole integrals L=1 to 1 MinM= 0 MaxM= 0.
 Requested accuracy = 0.1000D-12
 PrsmSu:  NPrtUS=   1 ThrOK=F IAlg=1 NPAlg=1 LenDen=           0.
 Prism:   IPart=     0 DynPar=F LinDyn=F Incr=           1.
 PRISM was handed   134210454 working-precision words and    36 shell-pairs
 IPart=  0 NShTot=          36 NBatch=          21 AvBLen=         1.7
 PrSmSu:  NxtVal=              2.
 Entering OneElI...
 Calculate overlap and kinetic energy integrals
    NBasis =  19  MinDer = 1  MaxDer = 1
 Requested accuracy = 0.1000D-12
 PrsmSu:  NPrtUS=   8 ThrOK=T IAlg=1 NPAlg=1 LenDen=           0.
 Prism:   IPart=     0 DynPar=F LinDyn=F Incr=           1.
 PRISM was handed    16774142 working-precision words and    36 shell-pairs
 PRISM was handed    16774142 working-precision words and    36 shell-pairs
 PRISM was handed    16774142 working-precision words and    36 shell-pairs
 PRISM was handed    16774142 working-precision words and    36 shell-pairs
 PRISM was handed    16774142 working-precision words and    36 shell-pairs
 PRISM was handed    16774142 working-precision words and    36 shell-pairs
 PRISM was handed    16774142 working-precision words and    36 shell-pairs
 PRISM was handed    16774142 working-precision words and    36 shell-pairs
 IPart=  0 NShTot=          21 NBatch=          21 AvBLen=         1.0
 IPart=  7 NShTot=           0 NBatch=           0 AvBLen=         0.0
 IPart=  3 NShTot=           2 NBatch=           2 AvBLen=         1.0
 IPart=  4 NShTot=           0 NBatch=           0 AvBLen=         0.0
 IPart=  5 NShTot=           0 NBatch=           0 AvBLen=         0.0
 IPart=  6 NShTot=           0 NBatch=           0 AvBLen=         0.0
 IPart=  1 NShTot=          10 NBatch=          10 AvBLen=         1.0
 IPart=  2 NShTot=           3 NBatch=           3 AvBLen=         1.0
 PrSmSu:  NxtVal=              9.
 Entering OneElI...
 Calculate potential energy integrals
    NBasis =  19  MinDer = 1  MaxDer = 1
 Requested accuracy = 0.1000D-12
 PrsmSu:  NPrtUS=   8 ThrOK=T IAlg=1 NPAlg=1 LenDen=           0.
 Prism:   IPart=     0 DynPar=F LinDyn=F Incr=           1.
 PRISM was handed    16774227 working-precision words and    36 shell-pairs
 PRISM was handed    16774227 working-precision words and    36 shell-pairs
 PRISM was handed    16774227 working-precision words and    36 shell-pairs
 PRISM was handed    16774227 working-precision words and    36 shell-pairs
 PRISM was handed    16774227 working-precision words and    36 shell-pairs
 PRISM was handed    16774227 working-precision words and    36 shell-pairs
 PRISM was handed    16774227 working-precision words and    36 shell-pairs
 PRISM was handed    16774227 working-precision words and    36 shell-pairs
 IPart=  0 NShTot=          63 NBatch=          21 AvBLen=         3.0
 IPart=  3 NShTot=           6 NBatch=           2 AvBLen=         3.0
 IPart=  2 NShTot=           9 NBatch=           3 AvBLen=         3.0
 IPart=  1 NShTot=          30 NBatch=          10 AvBLen=         3.0
 IPart=  5 NShTot=           0 NBatch=           0 AvBLen=         0.0
 IPart=  4 NShTot=           0 NBatch=           0 AvBLen=         0.0
 IPart=  6 NShTot=           0 NBatch=           0 AvBLen=         0.0
 IPart=  7 NShTot=           0 NBatch=           0 AvBLen=         0.0
 PrSmSu:  NxtVal=              9.
 l701 out
 I=    0 X=   0.000000000000D+00 Y=   0.000000000000D+00 Z=  -8.652884756712D-01
 I=    1 X=   0.000000000000D+00 Y=   0.000000000000D+00 Z=   2.768252298906D+00
 I=    2 X=   0.000000000000D+00 Y=   1.974969143834D+00 Z=  -1.384126149453D+00
 I=    3 X=   0.000000000000D+00 Y=  -1.974969143834D+00 Z=  -1.384126149453D+00
 ICntrl=      2127.
 Calling FoFJK, ICntrl=      2127 FMM=F ISym2X=1 I1Cent= 0 IOpClX= 0 NMat=1 NMatS=1 NMatT=0.
 FoFJK:  IHMeth= 1 ICntrl=  2127 DoSepK=F KAlg= 1 I1Cent= 0 FoldK=F
 FoFCou: FMM=F IPFlag=           0 FMFlag=      100000 FMFlg1=         800
         NFxFlg=           0 DoJE=F BraDBF=F KetDBF=F FulRan=T
         Omega=  0.000000  0.000000  1.000000  0.000000  0.000000 ICntrl=    2127 IOpCl=  0
         NMat0=    1 NMatS0=    1 NMatT0=    0 NMatD0=    1 NMtDS0=    0 NMtDT0=    0
         I1Cent=           0 NGrid=           0.
 Petite list used in FoFCou.
 FoFCou:  KetSym=F NOpSet=  4 NOpAb=4 NOp=  4.
 FoFCou:  CnvScl= 1.00D+00 Thresh= 1.00D-10
 PrismS was handed   134210417 working-precision words and    36 shell-pairs
 FoFCou: LinMIO=F DoNuc=F BraDBF=F KetDBF=F HaveP=T PDBF=F HaveZ=T HaveW=F
         NIJTC =       6 NIJTAt=       0 NIJTCD=       0 NIJTT =       6
         IJTBeg=       1 IJTEnd=       6 KLTBeg=       1 KLTEnd=       6
         IPTBeg=       1 IPTEnd=       6 IPTBCv=       1 IPTECv=       6
         IZTBeg=       1 IZTEnd=       6 IZTBCv=       1 IZTECv=       6
         IWTBeg=       7 IWTEnd=       6 IWTBCv=       7 IWTECv=       6
         INTBeg=       1 INTEnd=       0 IFTBCv=       1 IFTECv=       6
 NCel replicated for PrismC:     1
 CoulSu:  IncDef=  1024 NBBP=            666 NTPThr=   100 NPartT=    8 Incr=           1 LDynOK=F.
 CoulSu:  NPrtUS=   8 ThrOK=T IAlg=1 NPAlg=1 LenDen=           0.
 Enter PrismC: JobTyp=21 DoJE=F Cont=F.
 PrismC:  IPart=     0 DynPar=F LinDyn=F Incr=           1 UseFst=F UseS4=T.
 PrismC was handed    16774260 working-precision words and    36 shell-pairs
 Enter PrismC: JobTyp=21 DoJE=F Cont=F.
 PrismC was handed    16774260 working-precision words and    36 shell-pairs
 Enter PrismC: JobTyp=21 DoJE=F Cont=F.
 Enter PrismC: JobTyp=21 DoJE=F Cont=F.
 PrismC was handed    16774260 working-precision words and    36 shell-pairs
 PrismC was handed    16774260 working-precision words and    36 shell-pairs
 Enter PrismC: JobTyp=21 DoJE=F Cont=F.
 PrismC was handed    16774260 working-precision words and    36 shell-pairs
 Enter PrismC: JobTyp=21 DoJE=F Cont=F.
 Enter PrismC: JobTyp=21 DoJE=F Cont=F.
 PrismC was handed    16774260 working-precision words and    36 shell-pairs
 PrismC was handed    16774260 working-precision words and    36 shell-pairs
 Enter PrismC: JobTyp=21 DoJE=F Cont=F.
 PrismC was handed    16774260 working-precision words and    36 shell-pairs
 IPart=  2 NShTot=          47 NShNF=          47 NShFF=           0 NBatch=          47 AvBLen=         1.0
 IPart=  3 NShTot=          38 NShNF=          38 NShFF=           0 NBatch=          38 AvBLen=         1.0
 IPart=  7 NShTot=           3 NShNF=           3 NShFF=           0 NBatch=           3 AvBLen=         1.0
 IPart=  4 NShTot=           6 NShNF=           6 NShFF=           0 NBatch=           6 AvBLen=         1.0
 IPart=  6 NShTot=           3 NShNF=           3 NShFF=           0 NBatch=           3 AvBLen=         1.0
 IPart=  1 NShTot=         133 NShNF=         133 NShFF=           0 NBatch=         133 AvBLen=         1.0
 IPart=  0 NShTot=         142 NShNF=         142 NShFF=           0 NBatch=         142 AvBLen=         1.0
 IPart=  5 NShTot=           6 NShNF=           6 NShFF=           0 NBatch=           6 AvBLen=         1.0
 CoulSu:  NxtVal=              9.
 Forces at end of L703
 I=    0 X=   0.000000000000D+00 Y=   0.000000000000D+00 Z=  -8.652884756712D-01
 I=    1 X=   0.000000000000D+00 Y=   0.000000000000D+00 Z=   1.650201851180D-04
 I=    2 X=   0.000000000000D+00 Y=   5.202989712116D-05 Z=  -8.251009255900D-05
 I=    3 X=   0.000000000000D+00 Y=  -5.202989712272D-05 Z=  -8.251009256055D-05
 FrcOut:
 IF    =    67 IFX   =    76 IFXYZ =    85
 IFFX  =    94 IFFFX =    94 IFLen =     9
 IFFLen=     0 IFFFLn=     0 IEDerv=    94
 LEDerv=   485 IFroze=   583 ICStrt=  1385
 Forces in standard orientation:
 -------------------------------------------------------------------
 Center     Atomic                   Forces (Hartrees/Bohr)
 Number     Number              X              Y              Z
 -------------------------------------------------------------------
      1        8           0.000000000    0.000000000    0.000165020
      2        1           0.000000000    0.000052030   -0.000082510
      3        1           0.000000000   -0.000052030   -0.000082510
 -------------------------------------------------------------------
 ***** Axes restored to original set *****
 Rotating derivatives, DoTrsp=F IDiff=-1 LEDeriv=    485 LFDPrp=       0 LDFDPr=       0.
 -------------------------------------------------------------------
 Center     Atomic                   Forces (Hartrees/Bohr)
 Number     Number              X              Y              Z
 -------------------------------------------------------------------
      1        8           0.000000000    0.000000000    0.000165020
      2        1           0.000000000   -0.000052030   -0.000082510
      3        1           0.000000000    0.000052030   -0.000082510
 -------------------------------------------------------------------
 Cartesian Forces:  Max     0.000165020 RMS     0.000071695
 Final forces over variables, Energy=-7.60107465D+01:
  3.16364482D-03 3.16364482D-03 3.63344300D-03

 GradGradGradGradGradGradGradGradGradGradGradGradGradGradGradGradGradGrad
 Berny optimization.
 Using GEDIIS/GDIIS optimizer.
 Internal  Forces:  Max     0.000091365 RMS     0.000082537
 Search for a local minimum.
 Step number   3 out of a maximum of   20
 All quantities printed in internal units (Hartrees-Bohrs-Radians)
 Mixed Optimization -- En-DIIS/RFO-DIIS
 Update second derivatives using D2CorX and points    1    2    3
 DE= -4.54D-05 DEPred=-4.74D-05 R= 9.59D-01
 SS=  1.41D+00  RLast= 1.83D-02 DXNew= 5.0454D-01 5.4872D-02
 Trust test= 9.59D-01 RLast= 1.83D-02 DXMaxT set to 3.00D-01
 The second derivative matrix:
                          R1        R2        A1
           R1           0.58067
           R2           0.02591   0.58067
           A1           0.02992   0.02992   0.19267
 ITU=  1  1  0
 Use linear search instead of GDIIS.
     Eigenvalues ---    0.18839   0.55477   0.61086
 RFO step:  Lambda=-5.29926864D-08 EMin= 1.88387232D-01
 Quartic linear search produced a step of  0.00247.
 Iteration  1 RMS(Cart)=  0.00018093 RMS(Int)=  0.00000003
 Iteration  2 RMS(Cart)=  0.00000003 RMS(Int)=  0.00000000
 ClnCor:  largest displacement from symmetrization is 6.28D-16 for atom     3.
 Variable       Old X    -DE/DX   Delta X   Delta X   Delta X     New X
                                 (Linear)    (Quad)   (Total)
    R1        1.79034  -0.00009   0.00001  -0.00018  -0.00017   1.79017
    R2        1.79034  -0.00009   0.00001  -0.00018  -0.00017   1.79017
    A1        1.84095   0.00006   0.00004   0.00033   0.00037   1.84132
         Item               Value     Threshold  Converged?
 Maximum Force            0.000091     0.000450     YES
 RMS     Force            0.000083     0.000300     YES
 Maximum Displacement     0.000244     0.001800     YES
 RMS     Displacement     0.000181     0.001200     YES
 Predicted change in Energy=-2.674441D-08
 Optimization completed.
    -- Stationary point found.
                           ----------------------------
                           !   Optimized Parameters   !
                           ! (Angstroms and Degrees)  !
 --------------------------                            --------------------------
 ! Name  Definition              Value          Derivative Info.                !
 --------------------------------------------------------------------------------
 ! R1    R(1,2)                  0.9474         -DE/DX =   -0.0001              !
 ! R2    R(1,3)                  0.9474         -DE/DX =   -0.0001              !
 ! A1    A(2,1,3)              105.4786         -DE/DX =    0.0001              !
 --------------------------------------------------------------------------------
 GradGradGradGradGradGradGradGradGradGradGradGradGradGradGradGradGradGrad

                          Input orientation:                          
 ---------------------------------------------------------------------
 Center     Atomic      Atomic             Coordinates (Angstroms)
 Number     Number       Type             X           Y           Z
 ---------------------------------------------------------------------
      1          8           0        0.000000    0.000000   -0.123801
      2          1           0        0.000000    0.754031    0.449800
      3          1           0        0.000000   -0.754031    0.449800
 ---------------------------------------------------------------------
                    Distance matrix (angstroms):
                    1          2          3
     1  O    0.000000
     2  H    0.947408   0.000000
     3  H    0.947408   1.508063   0.000000
 Stoichiometry    H2O
 Framework group  C2V[C2(O),SGV(H2)]
 Deg. of freedom     2
 Full point group                 C2V     NOp   4
 Largest Abelian subgroup         C2V     NOp   4
 Largest concise Abelian subgroup C2      NOp   2
                         Standard orientation:                         
 ---------------------------------------------------------------------
 Center     Atomic      Atomic             Coordinates (Angstroms)
 Number     Number       Type             X           Y           Z
 ---------------------------------------------------------------------
      1          8           0        0.000000    0.000000    0.114720
      2          1           0        0.000000    0.754031   -0.458881
      3          1           0        0.000000   -0.754031   -0.458881
 ---------------------------------------------------------------------
 Rotational constants (GHZ):    858.0786916    440.9844941    291.2863684

 **********************************************************************

            Population analysis using the SCF density.

 **********************************************************************

 Orbital symmetries:
       Occupied  (A1) (A1) (B2) (A1) (B1)
       Virtual   (A1) (B2) (B2) (A1) (B1) (A1) (B2) (A1) (A1) (A2)
                 (B1) (A1) (B2) (A1)
 The electronic state is 1-A1.
 Alpha  occ. eigenvalues --  -20.55790  -1.34610  -0.71418  -0.57083  -0.49821
 Alpha virt. eigenvalues --    0.21300   0.30684   1.03156   1.13339   1.16802
 Alpha virt. eigenvalues --    1.17845   1.38507   1.43126   2.02052   2.03061
 Alpha virt. eigenvalues --    2.06722   2.63550   2.96562   3.97762
          Condensed to atoms (all electrons):
              1          2          3
     1  O    8.332909   0.267902   0.267902
     2  H    0.267902   0.316231  -0.018491
     3  H    0.267902  -0.018491   0.316231
 Mulliken atomic charges:
              1
     1  O   -0.868714
     2  H    0.434357
     3  H    0.434357
 Sum of Mulliken atomic charges =   0.00000
 Mulliken charges with hydrogens summed into heavy atoms:
              1
     1  O    0.000000
 Sum of Mulliken charges with hydrogens summed into heavy atoms =   0.00000
 Electronic spatial extent (au):  <R**2>=             18.8122
 Charge=              0.0000 electrons
 Dipole moment (field-independent basis, Debye):
    X=              0.0000    Y=              0.0000    Z=             -2.1993  Tot=              2.1993
 Quadrupole moment (field-independent basis, Debye-Ang):
   XX=             -7.2059   YY=             -4.1063   ZZ=             -6.0004
   XY=              0.0000   XZ=              0.0000   YZ=              0.0000
 Traceless Quadrupole moment (field-independent basis, Debye-Ang):
   XX=             -1.4350   YY=              1.6646   ZZ=             -0.2296
   XY=              0.0000   XZ=              0.0000   YZ=              0.0000
 Octapole moment (field-independent basis, Debye-Ang**2):
  XXX=              0.0000  YYY=              0.0000  ZZZ=             -1.4307  XYY=              0.0000
  XXY=              0.0000  XXZ=             -0.3873  XZZ=              0.0000  YZZ=              0.0000
  YYZ=             -1.3550  XYZ=              0.0000
 Hexadecapole moment (field-independent basis, Debye-Ang**3):
 XXXX=             -5.1843 YYYY=             -5.3648 ZZZZ=             -5.9902 XXXY=              0.0000
 XXXZ=              0.0000 YYYX=              0.0000 YYYZ=              0.0000 ZZZX=              0.0000
 ZZZY=              0.0000 XXYY=             -2.0171 XXZZ=             -1.9088 YYZZ=             -1.5811
 XXYZ=              0.0000 YYXZ=              0.0000 ZZXY=              0.0000
 N-N= 9.287741471596D+00 E-N=-1.990818575884D+02  KE= 7.585932922618D+01
 Symmetry A1   KE= 6.776026014436D+01
 Symmetry A2   KE= 5.064678553144D-35
 Symmetry B1   KE= 4.551638963140D+00
 Symmetry B2   KE= 3.547430118682D+00

 Test job not archived.
 1\1\GINC-THEOWULF\FOpt\RHF\6-31G(d)\H2O1\TOBIAS\16-May-2017\0\\#hf/6-3
 1g(d) opt freq iop(7/33=1)\\water hf/6-31g* opt freq\\0,1\O,0.,0.,-0.1
 238014927\H,0.,0.7540312916,0.4497998663\H,0.,-0.7540312916,0.44979986
 63\\Version=EM64L-G09RevB.01\State=1-A1\HF=-76.0107465\RMSD=2.689e-09\
 RMSF=7.170e-05\Dipole=0.,0.,0.8652885\Quadrupole=-1.0668966,1.2375721,
 -0.1706755,0.,0.,0.\PG=C02V [C2(O1),SGV(H2)]\\@


 IF GOD HAD MEANT MAN TO SEE THE SUN RISE, HE
 WOULD HAVE SCHEDULED IT FOR A LATER HOUR.
 Job cpu time:  0 days  0 hours  1 minutes 34.1 seconds.
 File lengths (MBytes):  RWF=      5 Int=      0 D2E=      0 Chk=      1 Scr=      1
 Normal termination of Gaussian 09 at Tue May 16 08:31:54 2017.
 Link1:  Proceeding to internal job step number  2.
 ----------------------------------------------------------------------
 #N Geom=AllCheck Guess=TCheck SCRF=Check Test GenChk RHF/6-31G(d) Freq
 ----------------------------------------------------------------------
 1/4=98304,10=4,29=7,30=1,38=1,40=1/1,3;
 2/4=98304,12=2,40=1/2;
 3/4=98304,5=1,6=6,7=1,11=1,14=-4,16=1,25=1,30=1,70=2,71=2,116=1/1,2,3;
 4/4=98304,5=101/1;
 5/4=98304,5=2,98=1/2;
 8/4=98304,6=4,10=90,11=11/1;
 10/4=98304,13=10,15=4/2;
 11/4=98304,6=3,8=1,9=11,15=111,16=1/1,2,10;
 10/4=98304,6=1/2;
 6/4=98304,7=2,8=2,9=2,10=2,18=1,28=1/1;
 7/4=98304,8=1,10=1,25=1/1,2,3,16;
 1/4=98304,10=4,30=1/3;
 99/4=98304/99;
 ------------------------
 water hf/6-31g* opt freq
 ------------------------
 Redundant internal coordinates taken from checkpoint file:
 /scr/tobias/G09_27906.dir/Gau-27914.chk
 Charge =  0 Multiplicity = 1
 O,0,0.,0.,-0.1238014927
 H,0,0.,0.7540312916,0.4497998663
 H,0,0.,-0.7540312916,0.4497998663
 Recover connectivity data from disk.

 GradGradGradGradGradGradGradGradGradGradGradGradGradGradGradGradGradGrad
 Berny optimization.
 Initialization pass.
                           ----------------------------
                           !    Initial Parameters    !
                           ! (Angstroms and Degrees)  !
 --------------------------                            --------------------------
 ! Name  Definition              Value          Derivative Info.                !
 --------------------------------------------------------------------------------
 ! R1    R(1,2)                  0.9474         calculate D2E/DX2 analytically  !
 ! R2    R(1,3)                  0.9474         calculate D2E/DX2 analytically  !
 ! A1    A(2,1,3)              105.4786         calculate D2E/DX2 analytically  !
 --------------------------------------------------------------------------------
 Trust Radius=3.00D-01 FncErr=1.00D-07 GrdErr=1.00D-07
 Number of steps in this run=      2 maximum allowed number of steps=      2.
 GradGradGradGradGradGradGradGradGradGradGradGradGradGradGradGradGradGrad

                          Input orientation:                          
 ---------------------------------------------------------------------
 Center     Atomic      Atomic             Coordinates (Angstroms)
 Number     Number       Type             X           Y           Z
 ---------------------------------------------------------------------
      1          8           0        0.000000    0.000000   -0.123801
      2          1           0        0.000000    0.754031    0.449800
      3          1           0        0.000000   -0.754031    0.449800
 ---------------------------------------------------------------------
                    Distance matrix (angstroms):
                    1          2          3
     1  O    0.000000
     2  H    0.947408   0.000000
     3  H    0.947408   1.508063   0.000000
 Stoichiometry    H2O
 Framework group  C2V[C2(O),SGV(H2)]
 Deg. of freedom     2
 Full point group                 C2V     NOp   4
 Largest Abelian subgroup         C2V     NOp   4
 Largest concise Abelian subgroup C2      NOp   2
                         Standard orientation:                         
 ---------------------------------------------------------------------
 Center     Atomic      Atomic             Coordinates (Angstroms)
 Number     Number       Type             X           Y           Z
 ---------------------------------------------------------------------
      1          8           0        0.000000    0.000000    0.114720
      2          1           0        0.000000    0.754031   -0.458881
      3          1           0        0.000000   -0.754031   -0.458881
 ---------------------------------------------------------------------
 Rotational constants (GHZ):    858.0786916    440.9844941    291.2863684
 Standard basis: 6-31G(d) (6D, 7F)
 There are    10 symmetry adapted basis functions of A1  symmetry.
 There are     1 symmetry adapted basis functions of A2  symmetry.
 There are     3 symmetry adapted basis functions of B1  symmetry.
 There are     5 symmetry adapted basis functions of B2  symmetry.
 Integral buffers will be    131072 words long.
 Raffenetti 1 integral format.
 Two-electron integral symmetry is turned on.
    19 basis functions,    36 primitive gaussians,    19 cartesian basis functions
     5 alpha electrons        5 beta electrons
       nuclear repulsion energy         9.2877414716 Hartrees.
 NAtoms=    3 NActive=    3 NUniq=    2 SFac= 2.25D+00 NAtFMM=   50 NAOKFM=F Big=F
 One-electron integrals computed using PRISM.
 NBasis=    19 RedAO= T  NBF=    10     1     3     5
 NBsUse=    19 1.00D-06 NBFU=    10     1     3     5
 Initial guess read from the checkpoint file:  /scr/tobias/G09_27906.dir/Gau-27914.chk
 B after Tr=     0.000000    0.000000    0.000000
         Rot=    1.000000    0.000000    0.000000    0.000000 Ang=   0.00 deg.
 Initial guess orbital symmetries:
       Occupied  (A1) (A1) (B2) (A1) (B1)
       Virtual   (A1) (B2) (B2) (A1) (B1) (A1) (B2) (A1) (A1) (A2)
                 (B1) (A1) (B2) (A1)
 Requested convergence on RMS density matrix=1.00D-08 within 128 cycles.
 Requested convergence on MAX density matrix=1.00D-06.
 Requested convergence on             energy=1.00D-06.
 No special actions if energy rises.
 Keep R1 ints in memory in canonical form, NReq=857998.
 SCF Done:  E(RHF) =  -76.0107464889     A.U. after    1 cycles
             Convg  =    0.1860D-09             -V/T =  2.0020
 Range of M.O.s used for correlation:     1    19
 NBasis=    19 NAE=     5 NBE=     5 NFC=     0 NFV=     0
 NROrb=     19 NOA=     5 NOB=     5 NVA=    14 NVB=    14
          Differentiating once with respect to electric field.
                with respect to dipole field.
          Electric field/nuclear overlap derivatives assumed to be zero.
          Keep R1 ints in memory in canonical form, NReq=838618.
          There are     3 degrees of freedom in the 1st order CPHF.  IDoFFX=0.
      3 vectors produced by pass  0 Test12= 2.33D-15 3.33D-08 XBig12= 1.15D+00 7.36D-01.
 AX will form     3 AO Fock derivatives at one time.
      3 vectors produced by pass  1 Test12= 2.33D-15 3.33D-08 XBig12= 5.13D-02 1.20D-01.
      3 vectors produced by pass  2 Test12= 2.33D-15 3.33D-08 XBig12= 6.16D-03 3.40D-02.
      3 vectors produced by pass  3 Test12= 2.33D-15 3.33D-08 XBig12= 2.39D-04 7.95D-03.
      3 vectors produced by pass  4 Test12= 2.33D-15 3.33D-08 XBig12= 2.26D-06 9.07D-04.
      3 vectors produced by pass  5 Test12= 2.33D-15 3.33D-08 XBig12= 1.88D-08 6.63D-05.
      3 vectors produced by pass  6 Test12= 2.33D-15 3.33D-08 XBig12= 2.29D-10 7.07D-06.
      2 vectors produced by pass  7 Test12= 2.33D-15 3.33D-08 XBig12= 1.32D-12 5.11D-07.
      1 vectors produced by pass  8 Test12= 2.33D-15 3.33D-08 XBig12= 6.61D-15 4.09D-08.
 Inverted reduced A of dimension    24 with in-core refinement.
 End of Minotr Frequency-dependent properties file   721 does not exist.
 End of Minotr Frequency-dependent properties file   722 does not exist.
 Symmetrizing basis deriv contribution to polar:
 IMax=3 JMax=2 DiffMx= 0.00D+00
 G2DrvN: will do     4 centers at a time, making    1 passes doing MaxLOS=2.
 Calling FoFCou, ICntrl=  3107 FMM=F I1Cent=   0 AccDes= 0.00D+00.
 FoFDir/FoFCou used for L=0 through L=2.
 End of G2Drv Frequency-dependent properties file   721 does not exist.
 End of G2Drv Frequency-dependent properties file   722 does not exist.
          IDoAtm=111
          Differentiating once with respect to electric field.
                with respect to dipole field.
          Differentiating once with respect to nuclear coordinates.
          Keep R1 ints in memory in canonical form, NReq=838681.
          There are     9 degrees of freedom in the 1st order CPHF.  IDoFFX=4.
 Will reuse    3 saved solutions.
      6 vectors produced by pass  0 Test12= 7.78D-16 1.11D-08 XBig12= 3.62D-02 1.07D-01.
 AX will form     6 AO Fock derivatives at one time.
      6 vectors produced by pass  1 Test12= 7.78D-16 1.11D-08 XBig12= 4.24D-03 3.99D-02.
      6 vectors produced by pass  2 Test12= 7.78D-16 1.11D-08 XBig12= 2.02D-04 8.97D-03.
      6 vectors produced by pass  3 Test12= 7.78D-16 1.11D-08 XBig12= 1.17D-06 5.31D-04.
      6 vectors produced by pass  4 Test12= 7.78D-16 1.11D-08 XBig12= 6.21D-09 3.65D-05.
      6 vectors produced by pass  5 Test12= 7.78D-16 1.11D-08 XBig12= 1.57D-11 1.44D-06.
      2 vectors produced by pass  6 Test12= 7.78D-16 1.11D-08 XBig12= 6.91D-14 1.15D-07.
 Inverted reduced A of dimension    38 with in-core refinement.
 Isotropic polarizability for W=    0.000000        4.76 Bohr**3.
 End of Minotr Frequency-dependent properties file   721 does not exist.
 End of Minotr Frequency-dependent properties file   722 does not exist.

 **********************************************************************

            Population analysis using the SCF density.

 **********************************************************************

 Orbital symmetries:
       Occupied  (A1) (A1) (B2) (A1) (B1)
       Virtual   (A1) (B2) (B2) (A1) (B1) (A1) (B2) (A1) (A1) (A2)
                 (B1) (A1) (B2) (A1)
 The electronic state is 1-A1.
 Alpha  occ. eigenvalues --  -20.55790  -1.34610  -0.71418  -0.57083  -0.49821
 Alpha virt. eigenvalues --    0.21300   0.30684   1.03156   1.13339   1.16802
 Alpha virt. eigenvalues --    1.17845   1.38507   1.43126   2.02052   2.03061
 Alpha virt. eigenvalues --    2.06722   2.63550   2.96562   3.97762
          Condensed to atoms (all electrons):
              1          2          3
     1  O    8.332909   0.267902   0.267902
     2  H    0.267902   0.316231  -0.018491
     3  H    0.267902  -0.018491   0.316231
 Mulliken atomic charges:
              1
     1  O   -0.868714
     2  H    0.434357
     3  H    0.434357
 Sum of Mulliken atomic charges =   0.00000
 Mulliken charges with hydrogens summed into heavy atoms:
              1
     1  O    0.000000
 Sum of Mulliken charges with hydrogens summed into heavy atoms =   0.00000
 APT atomic charges:
              1
     1  O   -0.600348
     2  H    0.300174
     3  H    0.300174
 Sum of APT charges=   0.00000
 APT Atomic charges with hydrogens summed into heavy atoms:
              1
     1  O    0.000000
     2  H    0.000000
     3  H    0.000000
 Sum of APT charges=   0.00000
 Electronic spatial extent (au):  <R**2>=             18.8122
 Charge=              0.0000 electrons
 Dipole moment (field-independent basis, Debye):
    X=              0.0000    Y=              0.0000    Z=             -2.1993  Tot=              2.1993
 Quadrupole moment (field-independent basis, Debye-Ang):
   XX=             -7.2059   YY=             -4.1063   ZZ=             -6.0004
   XY=              0.0000   XZ=              0.0000   YZ=              0.0000
 Traceless Quadrupole moment (field-independent basis, Debye-Ang):
   XX=             -1.4350   YY=              1.6646   ZZ=             -0.2296
   XY=              0.0000   XZ=              0.0000   YZ=              0.0000
 Octapole moment (field-independent basis, Debye-Ang**2):
  XXX=              0.0000  YYY=              0.0000  ZZZ=             -1.4307  XYY=              0.0000
  XXY=              0.0000  XXZ=             -0.3873  XZZ=              0.0000  YZZ=              0.0000
  YYZ=             -1.3550  XYZ=              0.0000
 Hexadecapole moment (field-independent basis, Debye-Ang**3):
 XXXX=             -5.1843 YYYY=             -5.3648 ZZZZ=             -5.9902 XXXY=              0.0000
 XXXZ=              0.0000 YYYX=              0.0000 YYYZ=              0.0000 ZZZX=              0.0000
 ZZZY=              0.0000 XXYY=             -2.0171 XXZZ=             -1.9088 YYZZ=             -1.5811
 XXYZ=              0.0000 YYXZ=              0.0000 ZZXY=              0.0000
 N-N= 9.287741471596D+00 E-N=-1.990818575731D+02  KE= 7.585932921603D+01
 Symmetry A1   KE= 6.776026014403D+01
 Symmetry A2   KE= 5.064678600444D-35
 Symmetry B1   KE= 4.551638949488D+00
 Symmetry B2   KE= 3.547430122510D+00
  Exact polarizability:   2.778   0.000   6.680   0.000   0.000   4.809
 Approx polarizability:   2.363   0.000   5.341   0.000   0.000   4.007
 Calling FoFJK, ICntrl=    100127 FMM=F ISym2X=1 I1Cent= 0 IOpClX= 0 NMat=1 NMatS=1 NMatT=0.
 Full mass-weighted force constant matrix:
 Low frequencies ---   -0.0021   -0.0019    0.0008   30.9419   37.3530   47.4058
 Low frequencies --- 1827.0130 4069.2853 4187.3516
 Harmonic frequencies (cm**-1), IR intensities (KM/Mole), Raman scattering
 activities (A**4/AMU), depolarization ratios for plane and unpolarized
 incident light, reduced masses (AMU), force constants (mDyne/A),
 and normal coordinates:
                     1                      2                      3
                    A1                     A1                     B2
 Frequencies --  1827.0130              4069.2853              4187.3516
 Red. masses --     1.0823                 1.0455                 1.0828
 Frc consts  --     2.1285                10.2006                11.1864
 IR Inten    --   107.2146                18.1915                57.9944
 Raman Activ --     5.7294                75.5675                39.1211
 Depolar (P) --     0.5300                 0.1830                 0.7500
 Depolar (U) --     0.6928                 0.3093                 0.8571
  Atom  AN      X      Y      Z        X      Y      Z        X      Y      Z
     1   8     0.00   0.00   0.07     0.00   0.00   0.05     0.00   0.07   0.00
     2   1     0.00  -0.43  -0.56     0.00   0.58  -0.40     0.00  -0.56   0.43
     3   1     0.00   0.43  -0.56     0.00  -0.58  -0.40     0.00  -0.56  -0.43

 -------------------
 - Thermochemistry -
 -------------------
 Temperature   298.150 Kelvin.  Pressure   1.00000 Atm.
 Atom     1 has atomic number  8 and mass  15.99491
 Atom     2 has atomic number  1 and mass   1.00783
 Atom     3 has atomic number  1 and mass   1.00783
 Molecular mass:    18.01056 amu.
 Principal axes and moments of inertia in atomic units:
                           1         2         3
     Eigenvalues --     2.10324   4.09253   6.19576
           X            0.00000   0.00000   1.00000
           Y            1.00000   0.00000   0.00000
           Z            0.00000   1.00000   0.00000
 This molecule is an asymmetric top.
 Rotational symmetry number  2.
 Rotational temperatures (Kelvin)     41.18123    21.16389    13.97952
 Rotational constants (GHZ):         858.07869   440.98449   291.28637
 Zero-point vibrational energy      60313.6 (Joules/Mol)
                                   14.41530 (Kcal/Mol)
 Vibrational temperatures:   2628.66  5854.79  6024.66
          (Kelvin)
 
 Zero-point correction=                           0.022972 (Hartree/Particle)
 Thermal correction to Energy=                    0.025806
 Thermal correction to Enthalpy=                  0.026750
 Thermal correction to Gibbs Free Energy=         0.005375
 Sum of electronic and zero-point Energies=            -75.987774
 Sum of electronic and thermal Energies=               -75.984940
 Sum of electronic and thermal Enthalpies=             -75.983996
 Sum of electronic and thermal Free Energies=          -76.005371
 
                     E (Thermal)             CV                S
                      KCal/Mol        Cal/Mol-Kelvin    Cal/Mol-Kelvin
 Total                   16.194              5.985             44.988
 Electronic               0.000              0.000              0.000
 Translational            0.889              2.981             34.608
 Rotational               0.889              2.981             10.377
 Vibrational             14.416              0.023              0.003
                       Q            Log10(Q)             Ln(Q)
 Total Bot       0.337006D-02         -2.472362         -5.692825
 Total V=0       0.124198D+09          8.094114         18.637387
 Vib (Bot)       0.271386D-10        -10.566412        -24.330063
 Vib (V=0)       0.100015D+01          0.000064          0.000148
 Electronic      0.100000D+01          0.000000          0.000000
 Translational   0.300432D+07          6.477746         14.915562
 Rotational      0.413336D+02          1.616304          3.721676
 ***** Axes restored to original set *****
 -------------------------------------------------------------------
 Center     Atomic                   Forces (Hartrees/Bohr)
 Number     Number              X              Y              Z
 -------------------------------------------------------------------
      1        8           0.000000000    0.000000000    0.000165021
      2        1           0.000000000   -0.000052030   -0.000082510
      3        1           0.000000000    0.000052030   -0.000082510
 -------------------------------------------------------------------
 Cartesian Forces:  Max     0.000165021 RMS     0.000071695

 GradGradGradGradGradGradGradGradGradGradGradGradGradGradGradGradGradGrad
 Berny optimization.
 Internal  Forces:  Max     0.000091366 RMS     0.000082538
 Search for a local minimum.
 Step number   1 out of a maximum of    2
 All quantities printed in internal units (Hartrees-Bohrs-Radians)
 Second derivative matrix not updated -- analytic derivatives used.
 The second derivative matrix:
                          R1        R2        A1
           R1           0.61247
           R2          -0.00683   0.61247
           A1           0.02846   0.02846   0.19155
 ITU=  0
     Eigenvalues ---    0.18767   0.60951   0.61930
 Angle between quadratic step and forces=  31.88 degrees.
 Linear search not attempted -- first point.
 Iteration  1 RMS(Cart)=  0.00018037 RMS(Int)=  0.00000003
 Iteration  2 RMS(Cart)=  0.00000003 RMS(Int)=  0.00000000
 ClnCor:  largest displacement from symmetrization is 1.11D-16 for atom     3.
 Variable       Old X    -DE/DX   Delta X   Delta X   Delta X     New X
                                 (Linear)    (Quad)   (Total)
    R1        1.79034  -0.00009   0.00000  -0.00017  -0.00017   1.79017
    R2        1.79034  -0.00009   0.00000  -0.00017  -0.00017   1.79017
    A1        1.84095   0.00006   0.00000   0.00037   0.00037   1.84132
         Item               Value     Threshold  Converged?
 Maximum Force            0.000091     0.000450     YES
 RMS     Force            0.000083     0.000300     YES
 Maximum Displacement     0.000243     0.001800     YES
 RMS     Displacement     0.000180     0.001200     YES
 Predicted change in Energy=-2.666592D-08
 Optimization completed.
    -- Stationary point found.
                           ----------------------------
                           !   Optimized Parameters   !
                           ! (Angstroms and Degrees)  !
 --------------------------                            --------------------------
 ! Name  Definition              Value          Derivative Info.                !
 --------------------------------------------------------------------------------
 ! R1    R(1,2)                  0.9474         -DE/DX =   -0.0001              !
 ! R2    R(1,3)                  0.9474         -DE/DX =   -0.0001              !
 ! A1    A(2,1,3)              105.4786         -DE/DX =    0.0001              !
 --------------------------------------------------------------------------------
 GradGradGradGradGradGradGradGradGradGradGradGradGradGradGradGradGradGrad


 Test job not archived.
 1\1\GINC-THEOWULF\Freq\RHF\6-31G(d)\H2O1\TOBIAS\16-May-2017\0\\#N Geom
 =AllCheck Guess=TCheck SCRF=Check Test GenChk RHF/6-31G(d) Freq\\water
  hf/6-31g* opt freq\\0,1\O,0.,0.,-0.1238014927\H,0.,0.7540312916,0.449
 7998663\H,0.,-0.7540312916,0.4497998663\\Version=EM64L-G09RevB.01\Stat
 e=1-A1\HF=-76.0107465\RMSD=1.860e-10\RMSF=7.170e-05\ZeroPoint=0.022972
 2\Thermal=0.025806\Dipole=0.,0.,0.8652885\DipoleDeriv=-0.7982737,0.,0.
 ,0.,-0.5362013,0.,0.,0.,-0.4665685,0.3991369,0.,0.,0.,0.2681006,-0.059
 5179,0.,-0.099681,0.2332843,0.3991369,0.,0.,0.,0.2681006,0.0595179,0.,
 0.099681,0.2332843\Polar=2.7783003,0.,6.6798089,0.,0.,4.8094313\PolarD
 eriv=0.,0.,0.,-1.8738246,0.,0.,0.,0.,0.,0.,-4.7142602,0.,0.3015495,0.,
 -5.3959776,0.,0.,-5.4279759,0.,1.3690344,0.,0.9369123,0.,0.,-0.1275144
 ,0.,4.8117883,0.,2.3571301,1.0002289,-0.1507748,0.,2.6979888,0.,2.4494
 125,2.7139879,0.,-1.3690344,0.,0.9369123,0.,0.,0.1275144,0.,-4.8117883
 ,0.,2.3571301,-1.0002289,-0.1507748,0.,2.6979888,0.,-2.4494125,2.71398
 79\HyperPolar=0.,0.,0.,0.,0.2688034,0.,18.7773747,0.,0.,9.2504654\PG=C
 02V [C2(O1),SGV(H2)]\NImag=0\\0.00015224,0.,0.78465063,0.,0.,0.5341664
 2,-0.00007612,0.,0.,0.00005632,0.,-0.39232532,-0.22572773,0.,0.4252257
 2,0.,-0.29838904,-0.26708321,0.,0.26205838,0.24705406,-0.00007612,0.,0
 .,0.00001980,0.,0.,0.00005632,0.,-0.39232532,0.22572773,0.,-0.03290041
 ,0.03633066,0.,0.42522572,0.,0.29838904,-0.26708321,0.,-0.03633066,0.0
 2002915,0.,-0.26205838,0.24705406\\0.,0.,-0.00016502,0.,0.00005203,0.0
 0008251,0.,-0.00005203,0.00008251\\\@


 THE 2ND LAW OF THERMODYNAMICS HAS THE SAME
 DEGREE OF TRUTH AS THE STATEMENT THAT IF YOU THROW
 A TUMBLERFULL OF WATER INTO THE SEA, YOU CANNOT GET
 THE SAME TUMBLERFULL OF WATER OUT AGAIN.
          - J.C. MAXWELL, LETTER TO LORD RAYLEIGH, DECEMBER 6,1870
 Job cpu time:  0 days  0 hours  1 minutes  2.2 seconds.
 File lengths (MBytes):  RWF=      5 Int=      0 D2E=      0 Chk=      1 Scr=      1
 Normal termination of Gaussian 09 at Tue May 16 08:32:10 2017.
